 Gaussian 16, Revision C.01,
 Gaussian 16:  ES64L-G16RevC.01  3-Jul-2019

 --------------------------------------------
 # opt umn15l/6-311++g(d,p) geom=connectivity
 --------------------------------------------

 ----------
 Fe2CO2_OPT
 ----------
 Symbolic Z-matrix:
 Charge =  2 Multiplicity = 3

 SCF Done:  E(UMN15L) =  -1451.21329131     A.U. after   26 cycles
 SCF Done:  E(UMN15L) =  -1451.22296734     A.U. after   25 cycles
 SCF Done:  E(UMN15L) =  -1451.22817065     A.U. after   37 cycles
 SCF Done:  E(UMN15L) =  -1451.22870120     A.U. after   28 cycles
 SCF Done:  E(UMN15L) =  -1451.22926030     A.U. after   24 cycles
 SCF Done:  E(UMN15L) =  -1451.22933856     A.U. after   26 cycles
 SCF Done:  E(UMN15L) =  -1451.22939438     A.U. after   20 cycles
 SCF Done:  E(UMN15L) =  -1451.22941697     A.U. after   19 cycles
 SCF Done:  E(UMN15L) =  -1451.22941894     A.U. after   18 cycles
 SCF Done:  E(UMN15L) =  -1451.22941908     A.U. after   21 cycles
 Optimization completed.
    -- Stationary point found.

                         Standard orientation:
 ---------------------------------------------------------------------
 Center     Atomic      Atomic             Coordinates (Angstroms)
 Number     Number       Type             X           Y           Z
 ---------------------------------------------------------------------
      1         26           0       -0.699916   -1.227260   -0.000000
      2          8           0        0.000000    0.606116    0.000000
      3          6           0        0.859635    1.452670    0.000000
      4          8           0        1.630002    2.292975    0.000000
 ---------------------------------------------------------------------

 The electronic state is 3-A".
 Alpha  occ. eigenvalues -- -256.22733 -30.43614 -26.42047 -26.41208 -26.39654
 Alpha  occ. eigenvalues --  -19.59244 -19.55456 -10.76415  -4.07082  -2.87137
 Alpha  occ. eigenvalues --   -2.86324  -2.81928  -1.62245  -1.57911  -1.06882
 Alpha  occ. eigenvalues --   -0.92503  -0.92466  -0.91851  -0.84241  -0.83081
 Alpha  occ. eigenvalues --   -0.81274  -0.80582  -0.78316  -0.78275
 Alpha virt. eigenvalues --   -0.75831  -0.55443  -0.42206  -0.41611  -0.39030
 Alpha virt. eigenvalues --   -0.38358  -0.37374  -0.28794  -0.24723  -0.22755
 Alpha virt. eigenvalues --   -0.22673  -0.18455  -0.17497  -0.16964  -0.16070

  Beta  occ. eigenvalues -- -256.23018 -30.37656 -26.37462 -26.36879 -26.35563
  Beta  occ. eigenvalues --  -19.59482 -19.55771 -10.76358  -3.94635  -2.73981
  Beta  occ. eigenvalues --   -2.72081  -2.69588  -1.62697  -1.58582  -1.06741
  Beta  occ. eigenvalues --   -0.92986  -0.92392  -0.92342  -0.80396  -0.79753
  Beta  occ. eigenvalues --   -0.73336  -0.72483
  Beta virt. eigenvalues --   -0.65002  -0.64446  -0.63210  -0.53955  -0.41995
  Beta virt. eigenvalues --   -0.41531  -0.39558  -0.37778  -0.37324  -0.28440
  Beta virt. eigenvalues --   -0.24195  -0.22662  -0.22647  -0.18234  -0.17478

 Mulliken charges and spin densities:
               1          2
     1  Fe   1.521889   2.168139
     2  O   -0.220756  -0.106909
     3  C    0.598537   0.046613
     4  O    0.100330  -0.107843
 Sum of Mulliken charges =   2.00000   2.00000

 Dipole moment (field-independent basis, Debye):
    X=             -2.4243    Y=             -5.3040    Z=              0.0000  Tot=              5.8318
 Quadrupole moment (field-independent basis, Debye-Ang):
   XX=            -15.3769   YY=             -1.4786   ZZ=            -22.2040
   XY=             11.8622   XZ=             -0.0000   YZ=             -0.0000

 Normal termination of Gaussian 16 at Thu Mar  2 21:25:32 2023.
